 Entering Gaussian System, Link 0=g16
 Input=/home/phung/Downloads/Quantum/chemistry/Fe2_CO2/MIL-53_DFT.gjf
 Output=/home/phung/Downloads/Quantum/chemistry/Fe2_CO2/MIL-53_DFT.log
 Initial command:
 /home/phung/Downloads/Quantum/chemistry/g16/l1.exe "/tmp/Gau-315239.inp" -scrdir="/tmp/"
 Entering Link 1 = /home/phung/Downloads/Quantum/chemistry/g16/l1.exe PID=    315241.
  
 Copyright (c) 1988-2019, Gaussian, Inc.  All Rights Reserved.
  
 This is part of the Gaussian(R) 16 program.  It is based on
 the Gaussian(R) 09 system (copyright 2009, Gaussian, Inc.),
 the Gaussian(R) 03 system (copyright 2003, Gaussian, Inc.),
 the Gaussian(R) 98 system (copyright 1998, Gaussian, Inc.),
 the Gaussian(R) 94 system (copyright 1995, Gaussian, Inc.),
 the Gaussian 92(TM) system (copyright 1992, Gaussian, Inc.),
 the Gaussian 90(TM) system (copyright 1990, Gaussian, Inc.),
 the Gaussian 88(TM) system (copyright 1988, Gaussian, Inc.),
 the Gaussian 86(TM) system (copyright 1986, Carnegie Mellon
 University), and the Gaussian 82(TM) system (copyright 1983,
 Carnegie Mellon University). Gaussian is a federally registered
 trademark of Gaussian, Inc.
  
 This software contains proprietary and confidential information,
 including trade secrets, belonging to Gaussian, Inc.
  
 This software is provided under written license and may be
 used, copied, transmitted, or stored only in accord with that
 written license.
  
 The following legend is applicable only to US Government
 contracts under FAR:
  
                    RESTRICTED RIGHTS LEGEND
  
 Use, reproduction and disclosure by the US Government is
 subject to restrictions as set forth in subparagraphs (a)
 and (c) of the Commercial Computer Software - Restricted
 Rights clause in FAR 52.227-19.
  
 Gaussian, Inc.
 340 Quinnipiac St., Bldg. 40, Wallingford CT 06492
  
  
 ---------------------------------------------------------------
 Warning -- This program may not be used in any manner that
 competes with the business of Gaussian, Inc. or will provide
 assistance to any competitor of Gaussian, Inc.  The licensee
 of this program is prohibited from giving any competitor of
 Gaussian, Inc. access to this program.  By using this program,
 the user acknowledges that Gaussian, Inc. is engaged in the
 business of creating and licensing software in the field of
 computational chemistry and represents and warrants to the
 licensee that it is not a competitor of Gaussian, Inc. and that
 it will not use this program in any manner prohibited above.
 ---------------------------------------------------------------
  

 Cite this work as:
 Gaussian 16, Revision C.01,
 M. J. Frisch, G. W. Trucks, H. B. Schlegel, G. E. Scuseria, 
 M. A. Robb, J. R. Cheeseman, G. Scalmani, V. Barone, 
 G. A. Petersson, H. Nakatsuji, X. Li, M. Caricato, A. V. Marenich, 
 J. Bloino, B. G. Janesko, R. Gomperts, B. Mennucci, H. P. Hratchian, 
 J. V. Ortiz, A. F. Izmaylov, J. L. Sonnenberg, D. Williams-Young, 
 F. Ding, F. Lipparini, F. Egidi, J. Goings, B. Peng, A. Petrone, 
 T. Henderson, D. Ranasinghe, V. G. Zakrzewski, J. Gao, N. Rega, 
 G. Zheng, W. Liang, M. Hada, M. Ehara, K. Toyota, R. Fukuda, 
 J. Hasegawa, M. Ishida, T. Nakajima, Y. Honda, O. Kitao, H. Nakai, 
 T. Vreven, K. Throssell, J. A. Montgomery, Jr., J. E. Peralta, 
 F. Ogliaro, M. J. Bearpark, J. J. Heyd, E. N. Brothers, K. N. Kudin, 
 V. N. Staroverov, T. A. Keith, R. Kobayashi, J. Normand, 
 K. Raghavachari, A. P. Rendell, J. C. Burant, S. S. Iyengar, 
 J. Tomasi, M. Cossi, J. M. Millam, M. Klene, C. Adamo, R. Cammi, 
 J. W. Ochterski, R. L. Martin, K. Morokuma, O. Farkas, 
 J. B. Foresman, and D. J. Fox, Gaussian, Inc., Wallingford CT, 2019.
 
 ******************************************
 Gaussian 16:  ES64L-G16RevC.01  3-Jul-2019
                 9-Mar-2023 
 ******************************************
 %chk=MIL-53_DFT.chk
 --------------------------
 # opt 6-311++g(d,p) umn15l
 --------------------------
 1/18=20,19=15,26=3,38=1/1,3;
 2/9=110,12=2,17=6,18=5,40=1/2;
 3/5=4,6=6,7=1111,11=2,25=1,30=1,71=1,74=-72,116=2/1,2,3;
 4//1;
 5/5=2,38=5/2;
 6/7=2,8=2,9=2,10=2,28=1/1;
 7//1,2,3,16;
 1/18=20,19=15,26=3/3(2);
 2/9=110/2;
 99//99;
 2/9=110/2;
 3/5=4,6=6,7=1111,11=2,25=1,30=1,71=1,74=-72,116=2/1,2,3;
 4/5=5,16=3,69=1/1;
 5/5=2,38=5/2;
 7//1,2,3,16;
 1/18=20,19=15,26=3/3(-5);
 2/9=110/2;
 6/7=2,8=2,9=2,10=2,19=2,28=1/1;
 99/9=1/99;
 ----------
 MIL-53_OPT
 ----------
 Symbolic Z-matrix:
 Charge =  2 Multiplicity = 3
 Fe                    1.7319    2.5333    4.02159 
 V                     3.91328   1.6191    2.2476 
 O                     0.96908   1.10901   8.74852 
 O                     4.46422   1.26639   3.77611 
 O                     6.46085  -0.04493   6.133 
 C                     1.50233   2.04522   7.65967 
 C                     2.76073   1.69953   8.63611 
 C                     3.51082   0.5686    9.00676 
 C                     4.53266   0.93901   8.68373 
 C                     5.26777   1.53966   7.71697 
 C                     5.80479   1.17652   6.43778 
 C                     6.63513   2.09793   10.28075 
 C                     9.96972   0.59586   10.09208 
 C                     9.30309   1.27343   9.09906 
 C                     7.06346   4.59543   9.16555 
 C                     6.61217   1.64347   9.13917 
 C                     5.97044   4.67424   8.58148 
 O                     7.15809   1.47706   11.00915 
 O                     10.04187   0.41232   11.18246 
 O                     8.34727   2.36606   8.77738 
 O                     7.77976   5.27965   9.57635 
 O                     5.89576   1.39368   8.66323 
 O                     5.27717   4.94719   7.97337 
 C                     7.8172    1.37886   9.59969 
 C                     6.8132    3.18302   9.40195 
 Fe                    8.45152  -0.36114   6.76757 
 Fe                    11.11015   5.01605   4.66 
 Fe                    2.23298   4.27503   1.85168 
 V                     9.73877   1.30366   7.2609 
 V                     9.16738   3.28658   5.43471 
 V                     3.96451   3.14331   3.36611 
 O                     7.36219   6.41901   4.78567 
 O                     10.61733   1.68803   8.83343 
 O                     16.66317   4.05019   1.15709 
 O                     16.77899   6.21861   1.32015 
 O                     10.56897  -0.4951    7.6812 
 O                     8.08317   4.87747   3.86422 
 O                     1.0724    2.75588   8.90992 
 O                     7.67823   3.0436    7.75471 
 O                     10.00799   1.84044   5.41432 
 O                     5.47003   2.88013   1.26648 
 O                     1.42772   3.0322    1.30305 
 O                     16.44527   2.8302    11.08776 
 O                     10.44211   3.54301   3.73216 
 O                     10.7819   7.09599   4.70066 
 O                     16.49206   0.64976   11.09844 
 O                     0.33284   4.39138   2.2486 
 O                     6.91746   1.83234   7.25186 
 C                     7.18246   5.68808   3.69912 
 C                     10.56268   0.3906    8.71316 
 C                     16.22564   5.12925   1.64972 
 C                     5.82897   5.55178   2.80192 
 C                     11.75292   0.91693   8.60282 
 C                     14.99338   5.17138   2.6165 
 C                     3.91755   6.00042   3.44605 
 C                     12.59084   2.74695   9.23924 
 C                     14.00567   4.21811   2.83884 
 C                     14.36342   6.23511   3.43592 
 C                     13.14905   0.33221   8.74484 
 C                     5.75362   4.0632    1.9055 
 C                     3.6046    2.79665   8.88115 
 C                     4.21519   5.17678   2.48364 
 C                     13.96668   2.58153   9.31822 
 C                     12.70631   4.25424   3.25011 
 C                     13.16538   6.1327    3.23243 
 C                     14.2929   0.50472   9.0657 
 C                     4.95557   4.14738   1.97231 
 C                     4.6167    2.6734    8.08774 
 C                     3.771     4.65385   1.39219 
 C                     14.87197   1.60142   9.65597 
 C                     12.02299   5.38005   3.48932 
 C                     1.44754   4.72057   0.27799 
 C                     16.02481   1.71389   10.64817 
 C                     10.25301   6.28788   3.71433 
 C                     5.15776   5.90133   4.0697 
 C                     8.73068   4.76168   5.05272 
 C                     9.98973   3.18542   6.88337 
 C                     11.4822   5.21614   2.18953 
 C                     12.94689   1.08504   7.58022 
 C                     8.09907   2.25041   7.01285 
 C                     7.57583   4.16355   5.2055 
 C                     3.51335   4.82857   7.37885 
 C                     13.94302   2.47219   5.36011 
 C                     7.7157    5.46551   1.6299 
 C                     4.2132    4.7284    6.3806 
 C                     12.92006   3.25659   5.85025 
 C                     8.59954   5.70203   2.45941 
 C                     5.6927    3.25109   5.43817 
 C                     12.31736   4.35046   5.22496 
 C                     10.64983   2.09806   2.97348 
 C                     4.50101   4.72803   4.2549 
 C                     8.10939   3.72763   6.96228 
 C                     8.61498   2.191     5.78472 
 C                     10.85056   5.98487   2.99327 
 C                     12.06632   2.21208   8.01311 
 C                     7.74395   3.16643   5.32897 
 C                     9.03874   4.47958   6.72006 
 C                     4.25307   2.70563   5.25274 
 C                     12.45484   4.41135   6.43052 
 C                     11.85812   2.32387   3.29209 
 O                     5.13244   6.35622   5.22299 
 O                     10.60179   3.34625   4.9565 
 O                     11.29728   3.88005   5.85797 
 O                     10.60486   4.66035   1.75328 
 O                     13.45017   0.49995   6.71095 
 O                     6.50838   2.97989   7.23632 
 O                     7.18611   2.2058    6.13807 
 O                     2.44356   5.15723   7.69127 
 O                     15.11194   2.31463   4.9317 
 O                     7.14823   5.29244   0.64425 
 O                     4.73307   4.05029   6.07887 
 O                     11.52634   3.70099   6.86589 
 O                     8.92665   6.03498   3.67994 
 O                     4.87954   2.91246   6.4043 
 O                     13.46967   3.76233   4.4432 
 O                     10.0001   1.38279   2.39312 
 O                     4.84568   6.46962   3.03891 
 O                     8.57385   3.91442   8.42322 
 O                     10.08652   4.18574   5.72694 
 O                     12.23311   6.36478   2.36089 
 O                     12.72276   1.35539   9.24637 
 O                     8.04414   3.53855   4.04919 
 O                     7.38773   3.19861   6.54406 
 O                     3.50723   1.75997   4.42643 
 O                     12.42997   4.49989   7.85636 
 O                     12.80017   1.98359   3.70902 
 C                     4.44491   5.27385   5.44362 
 C                     11.23852   2.72593   6.32382 
 C                     9.43061   4.38201   3.93929 
 C                     9.76288   5.47539   2.21992 
 C                     13.45778   2.63367   7.77664 
 C                     6.43915   3.83068   6.03512 
 C                     8.93255   2.84581   7.94522 
 C                     5.01176   4.3044    4.88587 
 C                     10.90615   4.54251   6.71982 
 C                     10.23266   2.01257   4.3961 
 C                     11.026    3.66525   2.82361 
 C                     12.88529   2.35562   6.74389 
 C                     6.2803    2.34773   5.77041 
 C                     6.91234   4.46115   7.60163 
 Tv                    17.6956   0.        0. 
 Tv                    0.        6.8745    0. 
 Tv                    0.        0.        11.9303 
 
 Add virtual bond connecting atoms O177       and O43        Dist= 4.45D+00.
 Add virtual bond connecting atoms O463       and O329       Dist= 4.45D+00.
 Add virtual bond connecting atoms O749       and O615       Dist= 4.45D+00.
 Add virtual bond connecting atoms O1035      and O901       Dist= 4.45D+00.

 GradGradGradGradGradGradGradGradGradGradGradGradGradGradGradGradGradGrad
 Berny optimization.
 Initialization pass.
                           ----------------------------
                           !    Initial Parameters    !
                           ! (Angstroms and Degrees)  !
 --------------------------                            --------------------------
 ! Name  Definition              Value          Derivative Info.                !
 --------------------------------------------------------------------------------
 ! R1    R(1,31)                 2.4055         estimate D2E/DX2                !
 ! R2    R(1,124)                1.9783         estimate D2E/DX2                !
 ! R3    R(2,4)                  1.6626         estimate D2E/DX2                !
 ! R4    R(2,31)                 1.8913         estimate D2E/DX2                !
 ! R5    R(3,6)                  1.5318         estimate D2E/DX2                !
 ! R6    R(3,38)                 1.658          estimate D2E/DX2                !
 ! R7    R(4,31)                 1.9851         estimate D2E/DX2                !
 ! R8    R(4,124)                1.2579         estimate D2E/DX2                !
 ! R9    R(5,11)                 1.4196         estimate D2E/DX2                !
 ! R10   R(5,26)                 2.1132         estimate D2E/DX2                !
 ! R11   R(6,7)                  1.6299         estimate D2E/DX2                !
 ! R12   R(6,38)                 1.501          estimate D2E/DX2                !
 ! R13   R(7,8)                  1.4068         estimate D2E/DX2                !
 ! R14   R(7,9)                  1.9288         estimate D2E/DX2                !
 ! R15   R(7,61)                 1.4056         estimate D2E/DX2                !
 ! R16   R(8,9)                  1.1339         estimate D2E/DX2                !
 ! R17   R(9,10)                 1.3549         estimate D2E/DX2                !
 ! R18   R(9,22)                 1.4371         estimate D2E/DX2                !
 ! R19   R(10,11)                1.4341         estimate D2E/DX2                !
 ! R20   R(10,22)                1.145          estimate D2E/DX2                !
 ! R21   R(10,68)                1.3589         estimate D2E/DX2                !
 ! R22   R(11,48)                1.5267         estimate D2E/DX2                !
 ! R23   R(11,107)               1.7485         estimate D2E/DX2                !
 ! R24   R(11,139)               1.4294         estimate D2E/DX2                !
 ! R25   R(12,16)                1.2289         estimate D2E/DX2                !
 ! R26   R(12,18)                1.0907         estimate D2E/DX2                !
 ! R27   R(12,24)                1.5421         estimate D2E/DX2                !
 ! R28   R(12,25)                1.4076         estimate D2E/DX2                !
 ! R29   R(13,14)                1.3746         estimate D2E/DX2                !
 ! R30   R(13,19)                1.1081         estimate D2E/DX2                !
 ! R31   R(13,33)                1.7879         estimate D2E/DX2                !
 ! R32   R(13,50)                1.515          estimate D2E/DX2                !
 ! R33   R(14,20)                1.4869         estimate D2E/DX2                !
 ! R34   R(14,24)                1.5715         estimate D2E/DX2                !
 ! R35   R(14,29)                1.8893         estimate D2E/DX2                !
 ! R36   R(14,33)                1.4035         estimate D2E/DX2                !
 ! R37   R(14,50)                1.5858         estimate D2E/DX2                !
 ! R38   R(15,17)                1.2418         estimate D2E/DX2                !
 ! R39   R(15,21)                1.0724         estimate D2E/DX2                !
 ! R40   R(15,25)                1.4538         estimate D2E/DX2                !
 ! R41   R(15,140)               1.5769         estimate D2E/DX2                !
 ! R42   R(16,22)                0.8956         estimate D2E/DX2                !
 ! R43   R(16,24)                1.3169         estimate D2E/DX2                !
 ! R44   R(16,25)                1.5747         estimate D2E/DX2                !
 ! R45   R(17,23)                0.9617         estimate D2E/DX2                !
 ! R46   R(17,25)                1.8992         estimate D2E/DX2                !
 ! R47   R(17,140)               1.3757         estimate D2E/DX2                !
 ! R48   R(18,24)                1.5591         estimate D2E/DX2                !
 ! R49   R(20,24)                1.3899         estimate D2E/DX2                !
 ! R50   R(20,29)                2.3162         estimate D2E/DX2                !
 ! R51   R(20,39)                1.3973         estimate D2E/DX2                !
 ! R52   R(20,118)               1.6044         estimate D2E/DX2                !
 ! R53   R(20,133)               1.1248         estimate D2E/DX2                !
 ! R54   R(23,140)               1.7459         estimate D2E/DX2                !
 ! R55   R(26,29)                2.1615         estimate D2E/DX2                !
 ! R56   R(27,44)                1.8647         estimate D2E/DX2                !
 ! R57   R(27,71)                1.5285         estimate D2E/DX2                !
 ! R58   R(27,74)                1.8018         estimate D2E/DX2                !
 ! R59   R(27,89)                1.4898         estimate D2E/DX2                !
 ! R60   R(27,94)                1.9453         estimate D2E/DX2                !
 ! R61   R(27,102)               1.7705         estimate D2E/DX2                !
 ! R62   R(27,103)               1.6615         estimate D2E/DX2                !
 ! R63   R(27,119)               1.6958         estimate D2E/DX2                !
 ! R64   R(27,129)               1.9345         estimate D2E/DX2                !
 ! R65   R(28,42)                1.5793         estimate D2E/DX2                !
 ! R66   R(28,47)                1.9446         estimate D2E/DX2                !
 ! R67   R(28,69)                1.6493         estimate D2E/DX2                !
 ! R68   R(28,72)                1.8144         estimate D2E/DX2                !
 ! R69   R(29,33)                1.8419         estimate D2E/DX2                !
 ! R70   R(29,36)                2.0252         estimate D2E/DX2                !
 ! R71   R(29,40)                1.9418         estimate D2E/DX2                !
 ! R72   R(29,50)                1.903          estimate D2E/DX2                !
 ! R73   R(29,77)                1.9356         estimate D2E/DX2                !
 ! R74   R(29,80)                1.9096         estimate D2E/DX2                !
 ! R75   R(29,93)                2.0565         estimate D2E/DX2                !
 ! R76   R(29,128)               2.2694         estimate D2E/DX2                !
 ! R77   R(29,133)               1.8699         estimate D2E/DX2                !
 ! R78   R(30,40)                1.6728         estimate D2E/DX2                !
 ! R79   R(30,76)                1.5851         estimate D2E/DX2                !
 ! R80   R(30,77)                1.6689         estimate D2E/DX2                !
 ! R81   R(30,93)                1.2759         estimate D2E/DX2                !
 ! R82   R(30,96)                1.4324         estimate D2E/DX2                !
 ! R83   R(30,97)                1.7584         estimate D2E/DX2                !
 ! R84   R(30,102)               1.5132         estimate D2E/DX2                !
 ! R85   R(30,119)               1.3186         estimate D2E/DX2                !
 ! R86   R(30,122)               1.8013         estimate D2E/DX2                !
 ! R87   R(31,62)                2.2308         estimate D2E/DX2                !
 ! R88   R(31,67)                1.9832         estimate D2E/DX2                !
 ! R89   R(31,91)                1.8945         estimate D2E/DX2                !
 ! R90   R(31,98)                1.9581         estimate D2E/DX2                !
 ! R91   R(31,124)               1.8019         estimate D2E/DX2                !
 ! R92   R(31,134)               2.1805         estimate D2E/DX2                !
 ! R93   R(32,49)                1.3218         estimate D2E/DX2                !
 ! R94   R(32,291)               1.6722         estimate D2E/DX2                !
 ! R95   R(32,312)               2.2635         estimate D2E/DX2                !
 ! R96   R(33,50)                1.3041         estimate D2E/DX2                !
 ! R97   R(33,53)                1.3919         estimate D2E/DX2                !
 ! R98   R(33,95)                1.7456         estimate D2E/DX2                !
 ! R99   R(34,51)                1.2643         estimate D2E/DX2                !
 ! R100  R(34,619)               1.7809         estimate D2E/DX2                !
 ! R101  R(35,51)                1.2655         estimate D2E/DX2                !
 ! R102  R(36,50)                1.3599         estimate D2E/DX2                !
 ! R103  R(37,49)                1.223          estimate D2E/DX2                !
 ! R104  R(37,76)                1.3584         estimate D2E/DX2                !
 ! R105  R(37,81)                1.6019         estimate D2E/DX2                !
 ! R106  R(37,87)                1.7088         estimate D2E/DX2                !
 ! R107  R(37,113)               1.444          estimate D2E/DX2                !
 ! R108  R(37,122)               1.3522         estimate D2E/DX2                !
 ! R109  R(37,129)               1.4376         estimate D2E/DX2                !
 ! R110  R(39,48)                1.5162         estimate D2E/DX2                !
 ! R111  R(39,80)                1.1647         estimate D2E/DX2                !
 ! R112  R(39,92)                1.1321         estimate D2E/DX2                !
 ! R113  R(39,106)               1.2812         estimate D2E/DX2                !
 ! R114  R(39,118)               1.4168         estimate D2E/DX2                !
 ! R115  R(39,123)               1.2546         estimate D2E/DX2                !
 ! R116  R(39,133)               1.284          estimate D2E/DX2                !
 ! R117  R(39,140)               1.6185         estimate D2E/DX2                !
 ! R118  R(40,93)                1.4834         estimate D2E/DX2                !
 ! R119  R(40,102)               1.6822         estimate D2E/DX2                !
 ! R120  R(40,136)               1.0568         estimate D2E/DX2                !
 ! R121  R(41,60)                1.3742         estimate D2E/DX2                !
 ! R122  R(41,67)                1.5391         estimate D2E/DX2                !
 ! R123  R(43,73)                1.2713         estimate D2E/DX2                !
 ! R124  R(43,177)               2.3525         estimate D2E/DX2                !
 ! R125  R(44,90)                1.6452         estimate D2E/DX2                !
 ! R126  R(44,102)               1.2503         estimate D2E/DX2                !
 ! R127  R(44,129)               1.3304         estimate D2E/DX2                !
 ! R128  R(44,137)               1.0869         estimate D2E/DX2                !
 ! R129  R(45,74)                1.3804         estimate D2E/DX2                !
 ! R130  R(46,73)                1.2464         estimate D2E/DX2                !
 ! R131  R(48,80)                1.276          estimate D2E/DX2                !
 ! R132  R(48,106)               1.2184         estimate D2E/DX2                !
 ! R133  R(48,107)               1.2051         estimate D2E/DX2                !
 ! R134  R(48,123)               1.609          estimate D2E/DX2                !
 ! R135  R(48,139)               1.693          estimate D2E/DX2                !
 ! R136  R(49,52)                1.6296         estimate D2E/DX2                !
 ! R137  R(49,113)               1.7785         estimate D2E/DX2                !
 ! R138  R(50,53)                1.3061         estimate D2E/DX2                !
 ! R139  R(51,54)                1.5668         estimate D2E/DX2                !
 ! R140  R(52,60)                1.7393         estimate D2E/DX2                !
 ! R141  R(52,62)                1.6871         estimate D2E/DX2                !
 ! R142  R(52,67)                1.8503         estimate D2E/DX2                !
 ! R143  R(52,75)                1.4765         estimate D2E/DX2                !
 ! R144  R(52,117)               1.3658         estimate D2E/DX2                !
 ! R145  R(53,59)                1.5203         estimate D2E/DX2                !
 ! R146  R(53,79)                1.581          estimate D2E/DX2                !
 ! R147  R(53,95)                1.4572         estimate D2E/DX2                !
 ! R148  R(53,121)               1.2438         estimate D2E/DX2                !
 ! R149  R(54,57)                1.3906         estimate D2E/DX2                !
 ! R150  R(54,58)                1.4832         estimate D2E/DX2                !
 ! R151  R(55,62)                1.3012         estimate D2E/DX2                !
 ! R152  R(55,75)                1.3917         estimate D2E/DX2                !
 ! R153  R(55,91)                1.6167         estimate D2E/DX2                !
 ! R154  R(55,117)               1.1169         estimate D2E/DX2                !
 ! R155  R(56,63)                1.388          estimate D2E/DX2                !
 ! R156  R(56,95)                1.4369         estimate D2E/DX2                !
 ! R157  R(56,121)               1.3978         estimate D2E/DX2                !
 ! R158  R(56,131)               1.704          estimate D2E/DX2                !
 ! R159  R(57,64)                1.3634         estimate D2E/DX2                !
 ! R160  R(57,115)               1.7519         estimate D2E/DX2                !
 ! R161  R(58,65)                1.2195         estimate D2E/DX2                !
 ! R162  R(59,66)                1.2005         estimate D2E/DX2                !
 ! R163  R(59,79)                1.4014         estimate D2E/DX2                !
 ! R164  R(59,121)               1.2166         estimate D2E/DX2                !
 ! R165  R(60,67)                0.8053         estimate D2E/DX2                !
 ! R166  R(61,68)                1.2919         estimate D2E/DX2                !
 ! R167  R(62,67)                1.3672         estimate D2E/DX2                !
 ! R168  R(62,69)                1.2892         estimate D2E/DX2                !
 ! R169  R(62,117)               1.5418         estimate D2E/DX2                !
 ! R170  R(63,70)                1.3763         estimate D2E/DX2                !
 ! R171  R(63,121)               1.7481         estimate D2E/DX2                !
 ! R172  R(63,131)               1.6242         estimate D2E/DX2                !
 ! R173  R(64,71)                1.3385         estimate D2E/DX2                !
 ! R174  R(64,115)               1.4994         estimate D2E/DX2                !
 ! R175  R(64,137)               1.8309         estimate D2E/DX2                !
 ! R176  R(65,71)                1.392          estimate D2E/DX2                !
 ! R177  R(65,120)               1.2971         estimate D2E/DX2                !
 ! R178  R(66,70)                1.3735         estimate D2E/DX2                !
 ! R179  R(67,69)                1.4129         estimate D2E/DX2                !
 ! R180  R(68,114)               1.7205         estimate D2E/DX2                !
 ! R181  R(70,73)                1.5252         estimate D2E/DX2                !
 ! R182  R(71,78)                1.4173         estimate D2E/DX2                !
 ! R183  R(71,94)                1.4094         estimate D2E/DX2                !
 ! R184  R(71,120)               1.5123         estimate D2E/DX2                !
 ! R185  R(74,94)                0.9843         estimate D2E/DX2                !
 ! R186  R(74,113)               1.3507         estimate D2E/DX2                !
 ! R187  R(75,91)                1.3573         estimate D2E/DX2                !
 ! R188  R(75,101)               1.24           estimate D2E/DX2                !
 ! R189  R(75,117)               1.2177         estimate D2E/DX2                !
 ! R190  R(75,127)               1.6702         estimate D2E/DX2                !
 ! R191  R(76,81)                1.3095         estimate D2E/DX2                !
 ! R192  R(76,97)                1.7189         estimate D2E/DX2                !
 ! R193  R(76,119)               1.6201         estimate D2E/DX2                !
 ! R194  R(76,122)               1.7247         estimate D2E/DX2                !
 ! R195  R(76,129)               1.3689         estimate D2E/DX2                !
 ! R196  R(76,312)               2.4672         estimate D2E/DX2                !
 ! R197  R(77,92)                1.9585         estimate D2E/DX2                !
 ! R198  R(77,97)                1.6143         estimate D2E/DX2                !
 ! R199  R(77,103)               1.801          estimate D2E/DX2                !
 ! R200  R(77,112)               1.6209         estimate D2E/DX2                !
 ! R201  R(77,119)               1.5321         estimate D2E/DX2                !
 ! R202  R(77,128)               1.4435         estimate D2E/DX2                !
 ! R203  R(77,133)               1.5364         estimate D2E/DX2                !
 ! R204  R(77,135)               1.6457         estimate D2E/DX2                !
 ! R205  R(78,94)                1.279          estimate D2E/DX2                !
 ! R206  R(78,104)               1.1265         estimate D2E/DX2                !
 ! R207  R(78,120)               1.383          estimate D2E/DX2                !
 ! R208  R(79,95)                1.4943         estimate D2E/DX2                !
 ! R209  R(79,105)               1.1624         estimate D2E/DX2                !
 ! R210  R(79,121)               1.7028         estimate D2E/DX2                !
 ! R211  R(79,131)               1.6425         estimate D2E/DX2                !
 ! R212  R(79,138)               1.5224         estimate D2E/DX2                !
 ! R213  R(80,92)                1.4781         estimate D2E/DX2                !
 ! R214  R(80,93)                1.3334         estimate D2E/DX2                !
 ! R215  R(80,107)               1.2652         estimate D2E/DX2                !
 ! R216  R(80,123)               1.2747         estimate D2E/DX2                !
 ! R217  R(80,133)               1.3851         estimate D2E/DX2                !
 ! R218  R(81,96)                1.0187         estimate D2E/DX2                !
 ! R219  R(81,122)               1.3954         estimate D2E/DX2                !
 ! R220  R(81,132)               1.4461         estimate D2E/DX2                !
 ! R221  R(82,85)                1.2233         estimate D2E/DX2                !
 ! R222  R(82,108)               1.1619         estimate D2E/DX2                !
 ! R223  R(83,86)                1.3791         estimate D2E/DX2                !
 ! R224  R(83,109)               1.2549         estimate D2E/DX2                !
 ! R225  R(83,115)               1.652          estimate D2E/DX2                !
 ! R226  R(83,138)               1.7456         estimate D2E/DX2                !
 ! R227  R(84,87)                1.235          estimate D2E/DX2                !
 ! R228  R(84,110)               1.1504         estimate D2E/DX2                !
 ! R229  R(85,111)               0.9062         estimate D2E/DX2                !
 ! R230  R(85,127)               1.1087         estimate D2E/DX2                !
 ! R231  R(86,89)                1.3967         estimate D2E/DX2                !
 ! R232  R(86,99)                1.3735         estimate D2E/DX2                !
 ! R233  R(86,103)               1.7384         estimate D2E/DX2                !
 ! R234  R(86,112)               1.7809         estimate D2E/DX2                !
 ! R235  R(86,115)               1.593          estimate D2E/DX2                !
 ! R236  R(86,138)               1.2695         estimate D2E/DX2                !
 ! R237  R(87,113)               1.3067         estimate D2E/DX2                !
 ! R238  R(87,130)               1.2092         estimate D2E/DX2                !
 ! R239  R(88,98)                1.5506         estimate D2E/DX2                !
 ! R240  R(88,111)               1.4036         estimate D2E/DX2                !
 ! R241  R(88,114)               1.3074         estimate D2E/DX2                !
 ! R242  R(88,132)               1.1178         estimate D2E/DX2                !
 ! R243  R(88,134)               1.3705         estimate D2E/DX2                !
 ! R244  R(88,139)               1.1277         estimate D2E/DX2                !
 ! R245  R(89,99)                1.2149         estimate D2E/DX2                !
 ! R246  R(89,103)               1.2894         estimate D2E/DX2                !
 ! R247  R(89,115)               1.5116         estimate D2E/DX2                !
 ! R248  R(90,100)               1.2698         estimate D2E/DX2                !
 ! R249  R(90,116)               1.1272         estimate D2E/DX2                !
 ! R250  R(90,136)               1.485          estimate D2E/DX2                !
 ! R251  R(90,137)               1.6187         estimate D2E/DX2                !
 ! R252  R(91,127)               1.3092         estimate D2E/DX2                !
 ! R253  R(91,134)               0.9157         estimate D2E/DX2                !
 ! R254  R(92,97)                1.2198         estimate D2E/DX2                !
 ! R255  R(92,118)               1.5443         estimate D2E/DX2                !
 ! R256  R(92,123)               0.9877         estimate D2E/DX2                !
 ! R257  R(92,133)               1.5561         estimate D2E/DX2                !
 ! R258  R(92,140)               1.5426         estimate D2E/DX2                !
 ! R259  R(93,96)                1.3849         estimate D2E/DX2                !
 ! R260  R(93,107)               1.472          estimate D2E/DX2                !
 ! R261  R(93,123)               1.7601         estimate D2E/DX2                !
 ! R262  R(94,120)               1.5671         estimate D2E/DX2                !
 ! R263  R(94,130)               1.4285         estimate D2E/DX2                !
 ! R264  R(95,121)               1.6388         estimate D2E/DX2                !
 ! R265  R(95,128)               1.9501         estimate D2E/DX2                !
 ! R266  R(95,131)               1.473          estimate D2E/DX2                !
 ! R267  R(95,138)               1.5173         estimate D2E/DX2                !
 ! R268  R(96,107)               1.3743         estimate D2E/DX2                !
 ! R269  R(96,122)               1.3662         estimate D2E/DX2                !
 ! R270  R(96,123)               1.2666         estimate D2E/DX2                !
 ! R271  R(96,132)               1.6255         estimate D2E/DX2                !
 ! R272  R(97,119)               1.4733         estimate D2E/DX2                !
 ! R273  R(97,312)               2.1174         estimate D2E/DX2                !
 ! R274  R(98,111)               1.6495         estimate D2E/DX2                !
 ! R275  R(98,114)               1.3272         estimate D2E/DX2                !
 ! R276  R(98,124)               1.4606         estimate D2E/DX2                !
 ! R277  R(98,134)               1.8073         estimate D2E/DX2                !
 ! R278  R(99,103)               1.3964         estimate D2E/DX2                !
 ! R279  R(99,112)               1.2475         estimate D2E/DX2                !
 ! R280  R(99,125)               1.4288         estimate D2E/DX2                !
 ! R281  R(99,135)               1.5809         estimate D2E/DX2                !
 ! R282  R(100,126)              1.0849         estimate D2E/DX2                !
 ! R283  R(101,127)              1.3011         estimate D2E/DX2                !
 ! R284  R(101,291)              1.6783         estimate D2E/DX2                !
 ! R285  R(102,103)              1.2575         estimate D2E/DX2                !
 ! R286  R(102,119)              1.2505         estimate D2E/DX2                !
 ! R287  R(102,128)              1.6309         estimate D2E/DX2                !
 ! R288  R(102,136)              1.493          estimate D2E/DX2                !
 ! R289  R(103,112)              1.049          estimate D2E/DX2                !
 ! R290  R(103,119)              1.2556         estimate D2E/DX2                !
 ! R291  R(103,128)              1.246          estimate D2E/DX2                !
 ! R292  R(103,135)              1.1553         estimate D2E/DX2                !
 ! R293  R(104,130)              1.2613         estimate D2E/DX2                !
 ! R294  R(104,137)              1.5209         estimate D2E/DX2                !
 ! R295  R(106,107)              1.5049         estimate D2E/DX2                !
 ! R296  R(106,123)              1.1403         estimate D2E/DX2                !
 ! R297  R(106,132)              1.4736         estimate D2E/DX2                !
 ! R298  R(106,139)              1.6126         estimate D2E/DX2                !
 ! R299  R(106,140)              1.5782         estimate D2E/DX2                !
 ! R300  R(107,123)              1.0914         estimate D2E/DX2                !
 ! R301  R(107,139)              0.9878         estimate D2E/DX2                !
 ! R302  R(111,114)              1.1925         estimate D2E/DX2                !
 ! R303  R(111,127)              1.4084         estimate D2E/DX2                !
 ! R304  R(111,134)              1.2512         estimate D2E/DX2                !
 ! R305  R(112,125)              1.5607         estimate D2E/DX2                !
 ! R306  R(112,128)              1.1521         estimate D2E/DX2                !
 ! R307  R(112,135)              1.0555         estimate D2E/DX2                !
 ! R308  R(113,129)              1.7474         estimate D2E/DX2                !
 ! R309  R(113,130)              1.7732         estimate D2E/DX2                !
 ! R310  R(114,139)              1.6379         estimate D2E/DX2                !
 ! R311  R(118,133)              1.2244         estimate D2E/DX2                !
 ! R312  R(119,135)              1.336          estimate D2E/DX2                !
 ! R313  R(122,129)              1.6266         estimate D2E/DX2                !
 ! R314  R(123,132)              1.2483         estimate D2E/DX2                !
 ! R315  R(123,140)              1.7142         estimate D2E/DX2                !
 ! R316  R(127,134)              1.2539         estimate D2E/DX2                !
 ! R317  R(128,138)              1.7394         estimate D2E/DX2                !
 ! R318  R(131,138)              1.2131         estimate D2E/DX2                !
 ! R319  R(132,139)              1.5147         estimate D2E/DX2                !
 ! R320  R(132,140)              1.7537         estimate D2E/DX2                !
 ! A1    A(2,4,124)             98.0448         estimate D2E/DX2                !
 ! A2    A(11,5,26)            119.9757         estimate D2E/DX2                !
 ! A3    A(3,6,7)               73.3395         estimate D2E/DX2                !
 ! A4    A(7,6,38)              79.7792         estimate D2E/DX2                !
 ! A5    A(6,7,8)              137.7331         estimate D2E/DX2                !
 ! A6    A(6,7,9)              143.8713         estimate D2E/DX2                !
 ! A7    A(6,7,61)             113.7289         estimate D2E/DX2                !
 ! A8    A(8,7,61)             105.1554         estimate D2E/DX2                !
 ! A9    A(9,7,61)              75.637          estimate D2E/DX2                !
 ! A10   A(7,9,10)             107.8187         estimate D2E/DX2                !
 ! A11   A(7,9,22)             138.2677         estimate D2E/DX2                !
 ! A12   A(8,9,10)             146.8273         estimate D2E/DX2                !
 ! A13   A(8,9,22)             164.1982         estimate D2E/DX2                !
 ! A14   A(9,10,11)            136.666          estimate D2E/DX2                !
 ! A15   A(9,10,68)             85.1379         estimate D2E/DX2                !
 ! A16   A(11,10,22)           119.966          estimate D2E/DX2                !
 ! A17   A(11,10,68)           129.3483         estimate D2E/DX2                !
 ! A18   A(22,10,68)            98.2594         estimate D2E/DX2                !
 ! A19   A(5,11,10)            125.6225         estimate D2E/DX2                !
 ! A20   A(5,11,48)             98.4693         estimate D2E/DX2                !
 ! A21   A(5,11,107)            96.0047         estimate D2E/DX2                !
 ! A22   A(5,11,139)           116.8099         estimate D2E/DX2                !
 ! A23   A(10,11,48)            71.8505         estimate D2E/DX2                !
 ! A24   A(10,11,107)          107.4373         estimate D2E/DX2                !
 ! A25   A(10,11,139)          109.4839         estimate D2E/DX2                !
 ! A26   A(16,12,18)           114.7601         estimate D2E/DX2                !
 ! A27   A(18,12,25)           142.6664         estimate D2E/DX2                !
 ! A28   A(24,12,25)            89.2408         estimate D2E/DX2                !
 ! A29   A(14,13,19)           145.4956         estimate D2E/DX2                !
 ! A30   A(19,13,33)           140.3862         estimate D2E/DX2                !
 ! A31   A(19,13,50)           147.966          estimate D2E/DX2                !
 ! A32   A(13,14,20)           146.1225         estimate D2E/DX2                !
 ! A33   A(13,14,24)           105.1576         estimate D2E/DX2                !
 ! A34   A(13,14,29)           126.7897         estimate D2E/DX2                !
 ! A35   A(20,14,33)           110.1171         estimate D2E/DX2                !
 ! A36   A(20,14,50)           150.1135         estimate D2E/DX2                !
 ! A37   A(24,14,29)           121.7969         estimate D2E/DX2                !
 ! A38   A(24,14,33)           157.8038         estimate D2E/DX2                !
 ! A39   A(24,14,50)           149.9828         estimate D2E/DX2                !
 ! A40   A(17,15,21)           136.6868         estimate D2E/DX2                !
 ! A41   A(21,15,25)           132.2668         estimate D2E/DX2                !
 ! A42   A(21,15,140)          119.8845         estimate D2E/DX2                !
 ! A43   A(25,15,140)           93.5572         estimate D2E/DX2                !
 ! A44   A(12,16,22)           127.7135         estimate D2E/DX2                !
 ! A45   A(22,16,24)           149.5132         estimate D2E/DX2                !
 ! A46   A(22,16,25)           117.6105         estimate D2E/DX2                !
 ! A47   A(24,16,25)            91.2189         estimate D2E/DX2                !
 ! A48   A(15,17,23)           161.789          estimate D2E/DX2                !
 ! A49   A(23,17,25)           144.6727         estimate D2E/DX2                !
 ! A50   A(25,17,140)           83.2389         estimate D2E/DX2                !
 ! A51   A(14,20,39)           145.3278         estimate D2E/DX2                !
 ! A52   A(14,20,118)          131.7689         estimate D2E/DX2                !
 ! A53   A(14,20,133)           97.9889         estimate D2E/DX2                !
 ! A54   A(24,20,29)           106.8996         estimate D2E/DX2                !
 ! A55   A(24,20,39)           126.499          estimate D2E/DX2                !
 ! A56   A(24,20,118)          150.4496         estimate D2E/DX2                !
 ! A57   A(24,20,133)          159.9017         estimate D2E/DX2                !
 ! A58   A(29,20,39)            91.7693         estimate D2E/DX2                !
 ! A59   A(29,20,118)          102.3153         estimate D2E/DX2                !
 ! A60   A(9,22,16)            147.0741         estimate D2E/DX2                !
 ! A61   A(10,22,16)           147.384          estimate D2E/DX2                !
 ! A62   A(12,24,14)           153.7313         estimate D2E/DX2                !
 ! A63   A(12,24,20)           102.8521         estimate D2E/DX2                !
 ! A64   A(14,24,16)           140.111          estimate D2E/DX2                !
 ! A65   A(14,24,18)           133.7852         estimate D2E/DX2                !
 ! A66   A(16,24,18)            85.2182         estimate D2E/DX2                !
 ! A67   A(16,24,20)            89.9642         estimate D2E/DX2                !
 ! A68   A(18,24,20)           130.6453         estimate D2E/DX2                !
 ! A69   A(12,25,15)           150.7194         estimate D2E/DX2                !
 ! A70   A(12,25,17)           144.9669         estimate D2E/DX2                !
 ! A71   A(15,25,16)           160.8585         estimate D2E/DX2                !
 ! A72   A(16,25,17)           129.7101         estimate D2E/DX2                !
 ! A73   A(5,26,29)            120.9516         estimate D2E/DX2                !
 ! A74   A(44,27,71)            91.2018         estimate D2E/DX2                !
 ! A75   A(44,27,74)            97.2399         estimate D2E/DX2                !
 ! A76   A(44,27,89)            97.2422         estimate D2E/DX2                !
 ! A77   A(44,27,94)            85.3704         estimate D2E/DX2                !
 ! A78   A(44,27,103)           81.8944         estimate D2E/DX2                !
 ! A79   A(44,27,119)           73.1428         estimate D2E/DX2                !
 ! A80   A(71,27,74)            73.3824         estimate D2E/DX2                !
 ! A81   A(71,27,89)            85.0038         estimate D2E/DX2                !
 ! A82   A(71,27,102)          121.6244         estimate D2E/DX2                !
 ! A83   A(71,27,103)          130.3754         estimate D2E/DX2                !
 ! A84   A(71,27,119)          163.5377         estimate D2E/DX2                !
 ! A85   A(71,27,129)          108.1321         estimate D2E/DX2                !
 ! A86   A(74,27,89)           154.1385         estimate D2E/DX2                !
 ! A87   A(74,27,102)          128.0994         estimate D2E/DX2                !
 ! A88   A(74,27,103)          156.1488         estimate D2E/DX2                !
 ! A89   A(74,27,119)          112.8725         estimate D2E/DX2                !
 ! A90   A(74,27,129)           67.8397         estimate D2E/DX2                !
 ! A91   A(89,27,94)           130.9623         estimate D2E/DX2                !
 ! A92   A(89,27,102)           75.3924         estimate D2E/DX2                !
 ! A93   A(89,27,119)           91.8218         estimate D2E/DX2                !
 ! A94   A(89,27,129)          134.296          estimate D2E/DX2                !
 ! A95   A(94,27,102)          125.0925         estimate D2E/DX2                !
 ! A96   A(94,27,119)          134.62           estimate D2E/DX2                !
 ! A97   A(94,27,129)           74.2261         estimate D2E/DX2                !
 ! A98   A(102,27,129)          60.2633         estimate D2E/DX2                !
 ! A99   A(103,27,129)          98.1814         estimate D2E/DX2                !
 ! A100  A(119,27,129)          63.2461         estimate D2E/DX2                !
 ! A101  A(42,28,47)            67.6515         estimate D2E/DX2                !
 ! A102  A(42,28,69)           124.0197         estimate D2E/DX2                !
 ! A103  A(42,28,72)            70.8043         estimate D2E/DX2                !
 ! A104  A(47,28,69)           162.6153         estimate D2E/DX2                !
 ! A105  A(47,28,72)            74.8909         estimate D2E/DX2                !
 ! A106  A(69,28,72)            96.065          estimate D2E/DX2                !
 ! A107  A(14,29,26)            94.1517         estimate D2E/DX2                !
 ! A108  A(14,29,36)            83.0162         estimate D2E/DX2                !
 ! A109  A(14,29,40)           164.0739         estimate D2E/DX2                !
 ! A110  A(14,29,77)           103.6042         estimate D2E/DX2                !
 ! A111  A(14,29,80)            86.3474         estimate D2E/DX2                !
 ! A112  A(14,29,93)           125.3973         estimate D2E/DX2                !
 ! A113  A(14,29,128)          124.3436         estimate D2E/DX2                !
 ! A114  A(14,29,133)           63.7499         estimate D2E/DX2                !
 ! A115  A(20,29,26)            98.3334         estimate D2E/DX2                !
 ! A116  A(20,29,33)            68.3984         estimate D2E/DX2                !
 ! A117  A(20,29,36)           121.1849         estimate D2E/DX2                !
 ! A118  A(20,29,40)           125.3895         estimate D2E/DX2                !
 ! A119  A(20,29,50)            88.8842         estimate D2E/DX2                !
 ! A120  A(20,29,77)            76.0936         estimate D2E/DX2                !
 ! A121  A(20,29,80)            48.8346         estimate D2E/DX2                !
 ! A122  A(20,29,93)            86.7761         estimate D2E/DX2                !
 ! A123  A(20,29,128)          112.328          estimate D2E/DX2                !
 ! A124  A(26,29,33)           129.7669         estimate D2E/DX2                !
 ! A125  A(26,29,36)            66.8839         estimate D2E/DX2                !
 ! A126  A(26,29,40)            94.4988         estimate D2E/DX2                !
 ! A127  A(26,29,50)            93.5816         estimate D2E/DX2                !
 ! A128  A(26,29,77)           141.3973         estimate D2E/DX2                !
 ! A129  A(26,29,80)            80.8419         estimate D2E/DX2                !
 ! A130  A(26,29,93)            80.9711         estimate D2E/DX2                !
 ! A131  A(26,29,128)          141.4471         estimate D2E/DX2                !
 ! A132  A(26,29,133)          117.5142         estimate D2E/DX2                !
 ! A133  A(33,29,36)            79.2005         estimate D2E/DX2                !
 ! A134  A(33,29,40)           133.4799         estimate D2E/DX2                !
 ! A135  A(33,29,77)            84.3645         estimate D2E/DX2                !
 ! A136  A(33,29,80)           114.6464         estimate D2E/DX2                !
 ! A137  A(33,29,93)           141.5768         estimate D2E/DX2                !
 ! A138  A(33,29,128)           84.6366         estimate D2E/DX2                !
 ! A139  A(33,29,133)           73.8053         estimate D2E/DX2                !
 ! A140  A(36,29,40)           112.7093         estimate D2E/DX2                !
 ! A141  A(36,29,77)           148.3006         estimate D2E/DX2                !
 ! A142  A(36,29,80)           145.0163         estimate D2E/DX2                !
 ! A143  A(36,29,93)           139.1307         estimate D2E/DX2                !
 ! A144  A(36,29,128)          111.8037         estimate D2E/DX2                !
 ! A145  A(36,29,133)          146.44           estimate D2E/DX2                !
 ! A146  A(40,29,50)           142.9706         estimate D2E/DX2                !
 ! A147  A(40,29,77)            61.8223         estimate D2E/DX2                !
 ! A148  A(40,29,80)            81.8634         estimate D2E/DX2                !
 ! A149  A(40,29,128)           48.8871         estimate D2E/DX2                !
 ! A150  A(40,29,133)          100.3593         estimate D2E/DX2                !
 ! A151  A(50,29,77)           123.9975         estimate D2E/DX2                !
 ! A152  A(50,29,80)           135.1338         estimate D2E/DX2                !
 ! A153  A(50,29,128)          109.2497         estimate D2E/DX2                !
 ! A154  A(50,29,133)          107.6425         estimate D2E/DX2                !
 ! A155  A(77,29,80)            66.6711         estimate D2E/DX2                !
 ! A156  A(77,29,93)            60.7496         estimate D2E/DX2                !
 ! A157  A(80,29,128)          101.7185         estimate D2E/DX2                !
 ! A158  A(93,29,128)           78.1308         estimate D2E/DX2                !
 ! A159  A(93,29,133)           70.8065         estimate D2E/DX2                !
 ! A160  A(128,29,133)          85.3643         estimate D2E/DX2                !
 ! A161  A(40,30,76)           160.0514         estimate D2E/DX2                !
 ! A162  A(40,30,77)            73.176          estimate D2E/DX2                !
 ! A163  A(40,30,96)           115.2109         estimate D2E/DX2                !
 ! A164  A(40,30,97)           129.2122         estimate D2E/DX2                !
 ! A165  A(40,30,119)          103.9999         estimate D2E/DX2                !
 ! A166  A(40,30,122)          115.1437         estimate D2E/DX2                !
 ! A167  A(76,30,77)           113.6626         estimate D2E/DX2                !
 ! A168  A(76,30,93)           138.2373         estimate D2E/DX2                !
 ! A169  A(76,30,96)            77.672          estimate D2E/DX2                !
 ! A170  A(76,30,102)           98.5285         estimate D2E/DX2                !
 ! A171  A(77,30,93)            85.5933         estimate D2E/DX2                !
 ! A172  A(77,30,96)           123.2757         estimate D2E/DX2                !
 ! A173  A(77,30,102)           79.0245         estimate D2E/DX2                !
 ! A174  A(93,30,97)           110.5102         estimate D2E/DX2                !
 ! A175  A(93,30,102)          122.07           estimate D2E/DX2                !
 ! A176  A(93,30,119)          145.7428         estimate D2E/DX2                !
 ! A177  A(93,30,122)           93.5055         estimate D2E/DX2                !
 ! A178  A(96,30,97)            92.1875         estimate D2E/DX2                !
 ! A179  A(96,30,102)          157.2166         estimate D2E/DX2                !
 ! A180  A(96,30,119)          140.0183         estimate D2E/DX2                !
 ! A181  A(97,30,102)          105.8785         estimate D2E/DX2                !
 ! A182  A(97,30,122)          114.9436         estimate D2E/DX2                !
 ! A183  A(102,30,122)         110.0293         estimate D2E/DX2                !
 ! A184  A(119,30,122)         120.6461         estimate D2E/DX2                !
 ! A185  A(1,31,2)              86.0802         estimate D2E/DX2                !
 ! A186  A(1,31,4)              86.4217         estimate D2E/DX2                !
 ! A187  A(1,31,62)            116.3112         estimate D2E/DX2                !
 ! A188  A(1,31,67)            141.6024         estimate D2E/DX2                !
 ! A189  A(1,31,91)            110.3118         estimate D2E/DX2                !
 ! A190  A(1,31,98)             79.4875         estimate D2E/DX2                !
 ! A191  A(1,31,134)           113.0096         estimate D2E/DX2                !
 ! A192  A(2,31,62)            120.2459         estimate D2E/DX2                !
 ! A193  A(2,31,67)             90.3392         estimate D2E/DX2                !
 ! A194  A(2,31,91)            163.5898         estimate D2E/DX2                !
 ! A195  A(2,31,98)            113.1831         estimate D2E/DX2                !
 ! A196  A(2,31,124)            73.8848         estimate D2E/DX2                !
 ! A197  A(2,31,134)           148.6882         estimate D2E/DX2                !
 ! A198  A(4,31,62)            156.244          estimate D2E/DX2                !
 ! A199  A(4,31,67)            119.8717         estimate D2E/DX2                !
 ! A200  A(4,31,91)            128.5149         estimate D2E/DX2                !
 ! A201  A(4,31,98)             63.4209         estimate D2E/DX2                !
 ! A202  A(4,31,134)           103.805          estimate D2E/DX2                !
 ! A203  A(62,31,91)            52.5027         estimate D2E/DX2                !
 ! A204  A(62,31,98)           124.6335         estimate D2E/DX2                !
 ! A205  A(62,31,124)          163.9588         estimate D2E/DX2                !
 ! A206  A(62,31,134)           74.7137         estimate D2E/DX2                !
 ! A207  A(67,31,91)            76.3901         estimate D2E/DX2                !
 ! A208  A(67,31,98)           135.7805         estimate D2E/DX2                !
 ! A209  A(67,31,124)          158.2865         estimate D2E/DX2                !
 ! A210  A(67,31,134)           88.8673         estimate D2E/DX2                !
 ! A211  A(91,31,98)            72.135          estimate D2E/DX2                !
 ! A212  A(91,31,124)          115.9748         estimate D2E/DX2                !
 ! A213  A(124,31,134)          96.9239         estimate D2E/DX2                !
 ! A214  A(49,32,291)          136.4519         estimate D2E/DX2                !
 ! A215  A(49,32,312)          143.9247         estimate D2E/DX2                !
 ! A216  A(13,33,29)           107.5051         estimate D2E/DX2                !
 ! A217  A(13,33,53)            94.229          estimate D2E/DX2                !
 ! A218  A(13,33,95)           144.5782         estimate D2E/DX2                !
 ! A219  A(14,33,53)           129.1762         estimate D2E/DX2                !
 ! A220  A(14,33,95)           162.7352         estimate D2E/DX2                !
 ! A221  A(29,33,53)            97.5907         estimate D2E/DX2                !
 ! A222  A(29,33,95)            93.2888         estimate D2E/DX2                !
 ! A223  A(50,33,95)           106.8646         estimate D2E/DX2                !
 ! A224  A(51,34,619)           82.1245         estimate D2E/DX2                !
 ! A225  A(49,37,76)           121.7146         estimate D2E/DX2                !
 ! A226  A(49,37,81)           100.089          estimate D2E/DX2                !
 ! A227  A(49,37,87)            77.9799         estimate D2E/DX2                !
 ! A228  A(49,37,122)          130.808          estimate D2E/DX2                !
 ! A229  A(49,37,129)          157.7892         estimate D2E/DX2                !
 ! A230  A(76,37,87)           128.0516         estimate D2E/DX2                !
 ! A231  A(76,37,113)           84.3498         estimate D2E/DX2                !
 ! A232  A(81,37,113)          130.4722         estimate D2E/DX2                !
 ! A233  A(81,37,129)           95.7114         estimate D2E/DX2                !
 ! A234  A(87,37,122)          126.7965         estimate D2E/DX2                !
 ! A235  A(87,37,129)           85.7564         estimate D2E/DX2                !
 ! A236  A(113,37,122)         145.8957         estimate D2E/DX2                !
 ! A237  A(20,39,48)            95.4866         estimate D2E/DX2                !
 ! A238  A(20,39,80)            87.8767         estimate D2E/DX2                !
 ! A239  A(20,39,92)           128.5272         estimate D2E/DX2                !
 ! A240  A(20,39,106)          135.1723         estimate D2E/DX2                !
 ! A241  A(20,39,123)          151.2813         estimate D2E/DX2                !
 ! A242  A(20,39,140)          136.0945         estimate D2E/DX2                !
 ! A243  A(48,39,92)           116.2083         estimate D2E/DX2                !
 ! A244  A(48,39,118)          164.7315         estimate D2E/DX2                !
 ! A245  A(48,39,133)          114.6019         estimate D2E/DX2                !
 ! A246  A(48,39,140)          115.5244         estimate D2E/DX2                !
 ! A247  A(80,39,106)           92.1974         estimate D2E/DX2                !
 ! A248  A(80,39,118)          119.3863         estimate D2E/DX2                !
 ! A249  A(80,39,140)          135.0074         estimate D2E/DX2                !
 ! A250  A(92,39,106)           95.4272         estimate D2E/DX2                !
 ! A251  A(106,39,118)         143.0066         estimate D2E/DX2                !
 ! A252  A(106,39,133)         160.7994         estimate D2E/DX2                !
 ! A253  A(118,39,123)         121.7172         estimate D2E/DX2                !
 ! A254  A(118,39,140)          78.7807         estimate D2E/DX2                !
 ! A255  A(123,39,133)         112.8537         estimate D2E/DX2                !
 ! A256  A(133,39,140)         127.6774         estimate D2E/DX2                !
 ! A257  A(29,40,30)            99.0743         estimate D2E/DX2                !
 ! A258  A(29,40,102)          123.7255         estimate D2E/DX2                !
 ! A259  A(30,40,136)           88.726          estimate D2E/DX2                !
 ! A260  A(93,40,102)          100.8299         estimate D2E/DX2                !
 ! A261  A(93,40,136)          113.6856         estimate D2E/DX2                !
 ! A262  A(73,43,177)          141.2526         estimate D2E/DX2                !
 ! A263  A(27,44,90)           151.409          estimate D2E/DX2                !
 ! A264  A(27,44,137)           97.7376         estimate D2E/DX2                !
 ! A265  A(90,44,102)          107.292          estimate D2E/DX2                !
 ! A266  A(90,44,129)          136.1928         estimate D2E/DX2                !
 ! A267  A(102,44,129)          92.5152         estimate D2E/DX2                !
 ! A268  A(102,44,137)         140.1441         estimate D2E/DX2                !
 ! A269  A(129,44,137)         117.8826         estimate D2E/DX2                !
 ! A270  A(11,48,39)           152.3394         estimate D2E/DX2                !
 ! A271  A(11,48,80)           135.7058         estimate D2E/DX2                !
 ! A272  A(11,48,106)           98.806          estimate D2E/DX2                !
 ! A273  A(11,48,123)          110.0724         estimate D2E/DX2                !
 ! A274  A(39,48,107)           86.9671         estimate D2E/DX2                !
 ! A275  A(39,48,139)          103.6416         estimate D2E/DX2                !
 ! A276  A(80,48,106)           89.9965         estimate D2E/DX2                !
 ! A277  A(80,48,139)           94.868          estimate D2E/DX2                !
 ! A278  A(123,48,139)          57.7618         estimate D2E/DX2                !
 ! A279  A(32,49,37)            98.9408         estimate D2E/DX2                !
 ! A280  A(32,49,52)           127.7182         estimate D2E/DX2                !
 ! A281  A(32,49,113)           76.5644         estimate D2E/DX2                !
 ! A282  A(37,49,52)           129.0956         estimate D2E/DX2                !
 ! A283  A(52,49,113)          145.584          estimate D2E/DX2                !
 ! A284  A(13,50,29)           117.3958         estimate D2E/DX2                !
 ! A285  A(13,50,36)           141.3273         estimate D2E/DX2                !
 ! A286  A(13,50,53)           112.2705         estimate D2E/DX2                !
 ! A287  A(14,50,36)           123.428          estimate D2E/DX2                !
 ! A288  A(14,50,53)           121.3353         estimate D2E/DX2                !
 ! A289  A(29,50,53)            97.8585         estimate D2E/DX2                !
 ! A290  A(33,50,36)           135.866          estimate D2E/DX2                !
 ! A291  A(36,50,53)           101.1938         estimate D2E/DX2                !
 ! A292  A(34,51,35)           118.8082         estimate D2E/DX2                !
 ! A293  A(34,51,54)           122.3811         estimate D2E/DX2                !
 ! A294  A(35,51,54)           118.7793         estimate D2E/DX2                !
 ! A295  A(49,52,60)           113.0373         estimate D2E/DX2                !
 ! A296  A(49,52,62)           156.4857         estimate D2E/DX2                !
 ! A297  A(49,52,67)           134.6219         estimate D2E/DX2                !
 ! A298  A(49,52,75)            83.3982         estimate D2E/DX2                !
 ! A299  A(49,52,117)          116.5015         estimate D2E/DX2                !
 ! A300  A(60,52,62)            70.7974         estimate D2E/DX2                !
 ! A301  A(60,52,75)           128.7164         estimate D2E/DX2                !
 ! A302  A(60,52,117)          129.3002         estimate D2E/DX2                !
 ! A303  A(62,52,75)            77.2766         estimate D2E/DX2                !
 ! A304  A(67,52,75)           110.4932         estimate D2E/DX2                !
 ! A305  A(67,52,117)          104.3613         estimate D2E/DX2                !
 ! A306  A(33,53,59)           161.2337         estimate D2E/DX2                !
 ! A307  A(33,53,79)           131.6363         estimate D2E/DX2                !
 ! A308  A(33,53,121)          110.8027         estimate D2E/DX2                !
 ! A309  A(50,53,59)           132.3764         estimate D2E/DX2                !
 ! A310  A(50,53,79)           141.7863         estimate D2E/DX2                !
 ! A311  A(50,53,95)           126.0404         estimate D2E/DX2                !
 ! A312  A(50,53,121)          143.9921         estimate D2E/DX2                !
 ! A313  A(59,53,95)           100.4944         estimate D2E/DX2                !
 ! A314  A(51,54,57)           129.7055         estimate D2E/DX2                !
 ! A315  A(51,54,58)           133.9659         estimate D2E/DX2                !
 ! A316  A(57,54,58)            95.8331         estimate D2E/DX2                !
 ! A317  A(62,55,75)            94.734          estimate D2E/DX2                !
 ! A318  A(62,55,91)            77.838          estimate D2E/DX2                !
 ! A319  A(91,55,117)          102.305          estimate D2E/DX2                !
 ! A320  A(63,56,95)           111.4712         estimate D2E/DX2                !
 ! A321  A(121,56,131)          83.6953         estimate D2E/DX2                !
 ! A322  A(54,57,64)           134.9913         estimate D2E/DX2                !
 ! A323  A(54,57,115)          122.8266         estimate D2E/DX2                !
 ! A324  A(54,58,65)           105.3577         estimate D2E/DX2                !
 ! A325  A(53,59,66)           147.6429         estimate D2E/DX2                !
 ! A326  A(66,59,79)           106.4018         estimate D2E/DX2                !
 ! A327  A(66,59,121)           95.9021         estimate D2E/DX2                !
 ! A328  A(7,61,68)            106.7859         estimate D2E/DX2                !
 ! A329  A(31,62,52)           103.6196         estimate D2E/DX2                !
 ! A330  A(31,62,55)           104.9921         estimate D2E/DX2                !
 ! A331  A(31,62,69)            85.7815         estimate D2E/DX2                !
 ! A332  A(31,62,117)          131.8984         estimate D2E/DX2                !
 ! A333  A(52,62,55)            86.4783         estimate D2E/DX2                !
 ! A334  A(52,62,69)           125.4124         estimate D2E/DX2                !
 ! A335  A(55,62,67)           151.2884         estimate D2E/DX2                !
 ! A336  A(55,62,69)           143.5243         estimate D2E/DX2                !
 ! A337  A(67,62,117)          122.9952         estimate D2E/DX2                !
 ! A338  A(69,62,117)          141.8047         estimate D2E/DX2                !
 ! A339  A(56,63,70)           138.6627         estimate D2E/DX2                !
 ! A340  A(70,63,121)           88.7765         estimate D2E/DX2                !
 ! A341  A(70,63,131)          117.5074         estimate D2E/DX2                !
 ! A342  A(121,63,131)          76.1464         estimate D2E/DX2                !
 ! A343  A(57,64,71)           124.2455         estimate D2E/DX2                !
 ! A344  A(57,64,137)          142.7363         estimate D2E/DX2                !
 ! A345  A(71,64,115)          113.1819         estimate D2E/DX2                !
 ! A346  A(71,64,137)           81.0068         estimate D2E/DX2                !
 ! A347  A(115,64,137)         123.1654         estimate D2E/DX2                !
 ! A348  A(58,65,71)           145.1725         estimate D2E/DX2                !
 ! A349  A(58,65,120)          143.4322         estimate D2E/DX2                !
 ! A350  A(59,66,70)           129.1485         estimate D2E/DX2                !
 ! A351  A(31,67,41)            94.1567         estimate D2E/DX2                !
 ! A352  A(31,67,52)           107.7622         estimate D2E/DX2                !
 ! A353  A(31,67,60)           120.0423         estimate D2E/DX2                !
 ! A354  A(31,67,69)            92.928          estimate D2E/DX2                !
 ! A355  A(41,67,52)           132.284          estimate D2E/DX2                !
 ! A356  A(41,67,69)           112.774          estimate D2E/DX2                !
 ! A357  A(52,67,69)           107.9257         estimate D2E/DX2                !
 ! A358  A(60,67,62)           130.2719         estimate D2E/DX2                !
 ! A359  A(60,67,69)           146.5441         estimate D2E/DX2                !
 ! A360  A(10,68,61)           128.4976         estimate D2E/DX2                !
 ! A361  A(10,68,114)           77.043          estimate D2E/DX2                !
 ! A362  A(61,68,114)          135.0173         estimate D2E/DX2                !
 ! A363  A(28,69,62)           100.2886         estimate D2E/DX2                !
 ! A364  A(28,69,67)           125.8113         estimate D2E/DX2                !
 ! A365  A(63,70,66)           100.7099         estimate D2E/DX2                !
 ! A366  A(63,70,73)           127.1797         estimate D2E/DX2                !
 ! A367  A(66,70,73)           131.0821         estimate D2E/DX2                !
 ! A368  A(27,71,64)           103.9727         estimate D2E/DX2                !
 ! A369  A(27,71,65)           139.4869         estimate D2E/DX2                !
 ! A370  A(27,71,78)           116.5507         estimate D2E/DX2                !
 ! A371  A(27,71,120)          144.0489         estimate D2E/DX2                !
 ! A372  A(64,71,65)            90.1621         estimate D2E/DX2                !
 ! A373  A(64,71,78)            86.1947         estimate D2E/DX2                !
 ! A374  A(64,71,94)           136.2791         estimate D2E/DX2                !
 ! A375  A(64,71,120)          110.0835         estimate D2E/DX2                !
 ! A376  A(65,71,78)           101.9136         estimate D2E/DX2                !
 ! A377  A(65,71,94)           112.6882         estimate D2E/DX2                !
 ! A378  A(43,73,46)           120.0526         estimate D2E/DX2                !
 ! A379  A(43,73,70)           122.6632         estimate D2E/DX2                !
 ! A380  A(46,73,70)           117.0923         estimate D2E/DX2                !
 ! A381  A(27,74,45)            81.7175         estimate D2E/DX2                !
 ! A382  A(27,74,113)          110.3854         estimate D2E/DX2                !
 ! A383  A(45,74,94)           118.1026         estimate D2E/DX2                !
 ! A384  A(45,74,113)          120.2667         estimate D2E/DX2                !
 ! A385  A(94,74,113)          121.323          estimate D2E/DX2                !
 ! A386  A(52,75,55)            92.1318         estimate D2E/DX2                !
 ! A387  A(52,75,91)            97.6131         estimate D2E/DX2                !
 ! A388  A(52,75,101)          153.4733         estimate D2E/DX2                !
 ! A389  A(52,75,127)          144.2356         estimate D2E/DX2                !
 ! A390  A(55,75,101)          111.8675         estimate D2E/DX2                !
 ! A391  A(55,75,127)           90.8613         estimate D2E/DX2                !
 ! A392  A(91,75,101)          100.3887         estimate D2E/DX2                !
 ! A393  A(91,75,117)          113.2609         estimate D2E/DX2                !
 ! A394  A(101,75,117)         127.6509         estimate D2E/DX2                !
 ! A395  A(117,75,127)         139.6653         estimate D2E/DX2                !
 ! A396  A(30,76,37)           114.9293         estimate D2E/DX2                !
 ! A397  A(30,76,81)            77.8648         estimate D2E/DX2                !
 ! A398  A(30,76,129)           78.2895         estimate D2E/DX2                !
 ! A399  A(30,76,312)          121.6274         estimate D2E/DX2                !
 ! A400  A(37,76,97)           161.4649         estimate D2E/DX2                !
 ! A401  A(37,76,119)          142.5008         estimate D2E/DX2                !
 ! A402  A(37,76,312)          119.5825         estimate D2E/DX2                !
 ! A403  A(81,76,97)            88.2761         estimate D2E/DX2                !
 ! A404  A(81,76,119)          121.8121         estimate D2E/DX2                !
 ! A405  A(81,76,129)          114.781          estimate D2E/DX2                !
 ! A406  A(81,76,312)           98.2457         estimate D2E/DX2                !
 ! A407  A(97,76,122)          121.2904         estimate D2E/DX2                !
 ! A408  A(97,76,129)          130.6815         estimate D2E/DX2                !
 ! A409  A(119,76,122)         108.8555         estimate D2E/DX2                !
 ! A410  A(119,76,129)          79.1626         estimate D2E/DX2                !
 ! A411  A(119,76,312)          93.3156         estimate D2E/DX2                !
 ! A412  A(122,76,312)         149.6462         estimate D2E/DX2                !
 ! A413  A(129,76,312)         145.099          estimate D2E/DX2                !
 ! A414  A(29,77,30)            99.4595         estimate D2E/DX2                !
 ! A415  A(29,77,92)            97.8633         estimate D2E/DX2                !
 ! A416  A(29,77,97)           136.2821         estimate D2E/DX2                !
 ! A417  A(29,77,103)          125.4601         estimate D2E/DX2                !
 ! A418  A(29,77,112)          115.7373         estimate D2E/DX2                !
 ! A419  A(29,77,119)          142.2003         estimate D2E/DX2                !
 ! A420  A(29,77,135)          153.2887         estimate D2E/DX2                !
 ! A421  A(30,77,92)            62.9423         estimate D2E/DX2                !
 ! A422  A(30,77,103)           80.8018         estimate D2E/DX2                !
 ! A423  A(30,77,112)          116.008          estimate D2E/DX2                !
 ! A424  A(30,77,128)           96.2637         estimate D2E/DX2                !
 ! A425  A(30,77,133)          105.9189         estimate D2E/DX2                !
 ! A426  A(30,77,135)           97.9408         estimate D2E/DX2                !
 ! A427  A(92,77,103)          127.8203         estimate D2E/DX2                !
 ! A428  A(92,77,112)          145.3384         estimate D2E/DX2                !
 ! A429  A(92,77,119)           84.8547         estimate D2E/DX2                !
 ! A430  A(92,77,128)          159.117          estimate D2E/DX2                !
 ! A431  A(92,77,135)          108.0797         estimate D2E/DX2                !
 ! A432  A(97,77,103)           93.4914         estimate D2E/DX2                !
 ! A433  A(97,77,112)          107.6008         estimate D2E/DX2                !
 ! A434  A(97,77,128)          136.5207         estimate D2E/DX2                !
 ! A435  A(97,77,133)           80.8958         estimate D2E/DX2                !
 ! A436  A(97,77,135)           69.9337         estimate D2E/DX2                !
 ! A437  A(112,77,119)          73.9956         estimate D2E/DX2                !
 ! A438  A(112,77,133)         136.8927         estimate D2E/DX2                !
 ! A439  A(119,77,128)          81.9863         estimate D2E/DX2                !
 ! A440  A(119,77,133)         135.1914         estimate D2E/DX2                !
 ! A441  A(128,77,133)         142.4497         estimate D2E/DX2                !
 ! A442  A(128,77,135)          75.0618         estimate D2E/DX2                !
 ! A443  A(133,77,135)         129.3562         estimate D2E/DX2                !
 ! A444  A(71,78,104)          135.1854         estimate D2E/DX2                !
 ! A445  A(94,78,104)           98.9329         estimate D2E/DX2                !
 ! A446  A(104,78,120)         151.7225         estimate D2E/DX2                !
 ! A447  A(53,79,105)          139.2119         estimate D2E/DX2                !
 ! A448  A(53,79,131)          104.9398         estimate D2E/DX2                !
 ! A449  A(53,79,138)          114.4261         estimate D2E/DX2                !
 ! A450  A(59,79,95)           104.4434         estimate D2E/DX2                !
 ! A451  A(59,79,105)          106.7745         estimate D2E/DX2                !
 ! A452  A(59,79,131)          111.2379         estimate D2E/DX2                !
 ! A453  A(59,79,138)          155.6049         estimate D2E/DX2                !
 ! A454  A(95,79,105)          148.3616         estimate D2E/DX2                !
 ! A455  A(105,79,121)         150.2998         estimate D2E/DX2                !
 ! A456  A(105,79,131)         115.4248         estimate D2E/DX2                !
 ! A457  A(105,79,138)          91.535          estimate D2E/DX2                !
 ! A458  A(121,79,131)          76.9519         estimate D2E/DX2                !
 ! A459  A(121,79,138)         113.5604         estimate D2E/DX2                !
 ! A460  A(29,80,39)           124.4132         estimate D2E/DX2                !
 ! A461  A(29,80,48)           127.4737         estimate D2E/DX2                !
 ! A462  A(29,80,92)           119.5999         estimate D2E/DX2                !
 ! A463  A(29,80,107)          133.7844         estimate D2E/DX2                !
 ! A464  A(29,80,123)          153.6049         estimate D2E/DX2                !
 ! A465  A(39,80,93)           139.1809         estimate D2E/DX2                !
 ! A466  A(39,80,107)          101.7515         estimate D2E/DX2                !
 ! A467  A(48,80,92)           109.8962         estimate D2E/DX2                !
 ! A468  A(48,80,93)           121.0789         estimate D2E/DX2                !
 ! A469  A(48,80,133)          124.8897         estimate D2E/DX2                !
 ! A470  A(92,80,93)            90.5908         estimate D2E/DX2                !
 ! A471  A(92,80,107)           90.9521         estimate D2E/DX2                !
 ! A472  A(93,80,133)          113.9743         estimate D2E/DX2                !
 ! A473  A(107,80,133)         156.1764         estimate D2E/DX2                !
 ! A474  A(123,80,133)         105.2839         estimate D2E/DX2                !
 ! A475  A(37,81,96)           119.0416         estimate D2E/DX2                !
 ! A476  A(37,81,132)          146.2942         estimate D2E/DX2                !
 ! A477  A(76,81,96)           108.4024         estimate D2E/DX2                !
 ! A478  A(76,81,132)          149.917          estimate D2E/DX2                !
 ! A479  A(122,81,132)         129.5039         estimate D2E/DX2                !
 ! A480  A(85,82,108)          140.2951         estimate D2E/DX2                !
 ! A481  A(86,83,109)          152.0893         estimate D2E/DX2                !
 ! A482  A(109,83,115)         100.1054         estimate D2E/DX2                !
 ! A483  A(109,83,138)         145.7577         estimate D2E/DX2                !
 ! A484  A(115,83,138)         108.5726         estimate D2E/DX2                !
 ! A485  A(87,84,110)          163.1951         estimate D2E/DX2                !
 ! A486  A(82,85,111)          131.3937         estimate D2E/DX2                !
 ! A487  A(82,85,127)          140.2624         estimate D2E/DX2                !
 ! A488  A(83,86,89)           127.3307         estimate D2E/DX2                !
 ! A489  A(83,86,99)           151.5878         estimate D2E/DX2                !
 ! A490  A(83,86,103)          153.8909         estimate D2E/DX2                !
 ! A491  A(83,86,112)          157.6866         estimate D2E/DX2                !
 ! A492  A(89,86,112)           73.8696         estimate D2E/DX2                !
 ! A493  A(89,86,138)          149.2238         estimate D2E/DX2                !
 ! A494  A(99,86,115)          102.8908         estimate D2E/DX2                !
 ! A495  A(99,86,138)          106.8586         estimate D2E/DX2                !
 ! A496  A(103,86,115)         102.2473         estimate D2E/DX2                !
 ! A497  A(103,86,138)         103.0521         estimate D2E/DX2                !
 ! A498  A(112,86,115)         133.9894         estimate D2E/DX2                !
 ! A499  A(112,86,138)          75.7714         estimate D2E/DX2                !
[...]
 ! D2769 D(96,132,139,11)      135.6431         estimate D2E/DX2                !
 ! D2770 D(96,132,139,48)       89.6891         estimate D2E/DX2                !
 ! D2771 D(96,132,139,107)      45.8155         estimate D2E/DX2                !
 ! D2772 D(96,132,139,114)    -176.9797         estimate D2E/DX2                !
 ! D2773 D(123,132,139,11)      81.3998         estimate D2E/DX2                !
 ! D2774 D(123,132,139,48)      35.4458         estimate D2E/DX2                !
 ! D2775 D(123,132,139,107)     -8.4278         estimate D2E/DX2                !
 ! D2776 D(123,132,139,114)    128.777          estimate D2E/DX2                !
 ! D2777 D(140,132,139,11)      37.6319         estimate D2E/DX2                !
 ! D2778 D(140,132,139,48)      -8.322          estimate D2E/DX2                !
 ! D2779 D(140,132,139,107)    -52.1957         estimate D2E/DX2                !
 ! D2780 D(140,132,139,114)     85.0091         estimate D2E/DX2                !
 ! D2781 D(81,132,140,15)     -145.455          estimate D2E/DX2                !
 ! D2782 D(81,132,140,17)      162.1615         estimate D2E/DX2                !
 ! D2783 D(81,132,140,23)      143.7029         estimate D2E/DX2                !
 ! D2784 D(81,132,140,39)      -84.459          estimate D2E/DX2                !
 ! D2785 D(81,132,140,92)      -43.6639         estimate D2E/DX2                !
 ! D2786 D(88,132,140,15)       28.8995         estimate D2E/DX2                !
 ! D2787 D(88,132,140,17)      -23.484          estimate D2E/DX2                !
 ! D2788 D(88,132,140,23)      -41.9426         estimate D2E/DX2                !
 ! D2789 D(88,132,140,39)       89.8956         estimate D2E/DX2                !
 ! D2790 D(88,132,140,92)      130.6906         estimate D2E/DX2                !
 ! D2791 D(96,132,140,15)     -106.237          estimate D2E/DX2                !
 ! D2792 D(96,132,140,17)     -158.6205         estimate D2E/DX2                !
 ! D2793 D(96,132,140,23)     -177.0791         estimate D2E/DX2                !
 ! D2794 D(96,132,140,39)      -45.2409         estimate D2E/DX2                !
 ! D2795 D(96,132,140,92)       -4.4459         estimate D2E/DX2                !
 ! D2796 D(139,132,140,15)     -32.2746         estimate D2E/DX2                !
 ! D2797 D(139,132,140,17)     -84.6581         estimate D2E/DX2                !
 ! D2798 D(139,132,140,23)    -103.1167         estimate D2E/DX2                !
 ! D2799 D(139,132,140,39)      28.7215         estimate D2E/DX2                !
 ! D2800 D(139,132,140,92)      69.5165         estimate D2E/DX2                !
 ! D2801 D(43,177,194,178)     -81.0043         estimate D2E/DX2                !
 ! D2802 D(43,177,194,197)      96.9296         estimate D2E/DX2                !
 ! D2803 D(43,177,762,743)      19.7895         estimate D2E/DX2                !
 ! D2804 D(32,291,297,296)    -167.3654         estimate D2E/DX2                !
 ! D2805 D(32,291,297,334)     -93.6696         estimate D2E/DX2                !
 ! D2806 D(32,291,297,393)     -50.8748         estimate D2E/DX2                !
 ! D2807 D(32,291,297,425)     -22.0957         estimate D2E/DX2                !
 ! D2808 D(101,291,297,296)    108.846          estimate D2E/DX2                !
 ! D2809 D(101,291,297,334)   -177.4582         estimate D2E/DX2                !
 ! D2810 D(101,291,297,393)   -134.6634         estimate D2E/DX2                !
 ! D2811 D(101,291,297,425)   -105.8843         estimate D2E/DX2                !
 ! D2812 D(101,291,312,76)      10.5943         estimate D2E/DX2                !
 ! D2813 D(101,291,312,97)     -26.9492         estimate D2E/DX2                !
 ! D2814 D(101,291,312,315)    148.884          estimate D2E/DX2                !
 ! D2815 D(297,291,312,76)    -159.3091         estimate D2E/DX2                !
 ! D2816 D(297,291,312,97)     163.1474         estimate D2E/DX2                !
 ! D2817 D(32,312,315,300)     145.4846         estimate D2E/DX2                !
 ! D2818 D(32,312,315,306)     105.6424         estimate D2E/DX2                !
 ! D2819 D(32,312,315,319)     174.4091         estimate D2E/DX2                !
 ! D2820 D(32,312,315,322)    -133.9277         estimate D2E/DX2                !
 ! D2821 D(32,312,315,326)     -21.1306         estimate D2E/DX2                !
 ! D2822 D(32,312,315,336)    -164.9622         estimate D2E/DX2                !
 ! D2823 D(32,312,315,363)      27.5212         estimate D2E/DX2                !
 ! D2824 D(32,312,315,366)      59.8663         estimate D2E/DX2                !
 ! D2825 D(32,312,315,379)      20.2785         estimate D2E/DX2                !
 ! D2826 D(32,312,315,414)     -37.4762         estimate D2E/DX2                !
 ! D2827 D(32,312,315,419)      83.0135         estimate D2E/DX2                !
 ! D2828 D(76,312,315,300)    -147.1003         estimate D2E/DX2                !
 ! D2829 D(76,312,315,306)     173.0575         estimate D2E/DX2                !
 ! D2830 D(76,312,315,319)    -118.1758         estimate D2E/DX2                !
 ! D2831 D(76,312,315,322)     -66.5126         estimate D2E/DX2                !
 ! D2832 D(76,312,315,326)      46.2845         estimate D2E/DX2                !
 ! D2833 D(76,312,315,336)     -97.5471         estimate D2E/DX2                !
 ! D2834 D(76,312,315,363)      94.9363         estimate D2E/DX2                !
 ! D2835 D(76,312,315,366)     127.2814         estimate D2E/DX2                !
 ! D2836 D(76,312,315,379)      87.6936         estimate D2E/DX2                !
 ! D2837 D(76,312,315,414)      29.9389         estimate D2E/DX2                !
 ! D2838 D(76,312,315,419)     150.4286         estimate D2E/DX2                !
 ! D2839 D(97,312,315,300)     -92.0061         estimate D2E/DX2                !
 ! D2840 D(97,312,315,306)    -131.8483         estimate D2E/DX2                !
 ! D2841 D(97,312,315,319)     -63.0816         estimate D2E/DX2                !
 ! D2842 D(97,312,315,322)     -11.4184         estimate D2E/DX2                !
 ! D2843 D(97,312,315,326)     101.3787         estimate D2E/DX2                !
 ! D2844 D(97,312,315,336)     -42.4528         estimate D2E/DX2                !
 ! D2845 D(97,312,315,363)     150.0305         estimate D2E/DX2                !
 ! D2846 D(97,312,315,366)    -177.6244         estimate D2E/DX2                !
 ! D2847 D(97,312,315,379)     142.7878         estimate D2E/DX2                !
 ! D2848 D(97,312,315,414)      85.0331         estimate D2E/DX2                !
 ! D2849 D(97,312,315,419)    -154.4771         estimate D2E/DX2                !
 ! D2850 D(614,600,619,34)     -44.476          estimate D2E/DX2                !
 ! D2851 D(641,600,619,34)      90.8779         estimate D2E/DX2                !
 ! D2852 D(644,600,619,34)      30.6183         estimate D2E/DX2                !
 --------------------------------------------------------------------------------
 Trust Radius=3.00D-01 FncErr=1.00D-07 GrdErr=1.00D-06 EigMax=2.50D+02 EigMin=1.00D-04
 Number of steps in this run=    858 maximum allowed number of steps=    858.
 GradGradGradGradGradGradGradGradGradGradGradGradGradGradGradGradGradGrad

 Symmetry turned off:
 Cannot cope with ghost atoms or with translation vectors.
 Stoichiometry    C80Fe4O52V4(2+,3)
 Framework group  C1[X(C80Fe4O52V4)]
 Deg. of freedom   414
 Full point group                 C1      NOp   1
                          Input orientation:                          
 ---------------------------------------------------------------------
 Center     Atomic      Atomic             Coordinates (Angstroms)
 Number     Number       Type             X           Y           Z
 ---------------------------------------------------------------------
      1         26           0       -6.863108   -0.805746   -1.773130
      2         23           0       -4.681727   -1.719941   -3.547118
      3          8           0       -7.625923   -2.230035    2.953805
      4          8           0       -4.130791   -2.072650   -2.018609
      5          8           0       -2.134158   -3.383977    0.338284
      6          6           0       -7.092676   -1.293823    1.864955
      7          6           0       -5.834275   -1.639511    2.841393
      8          6           0       -5.084190   -2.770446    3.212041
      9          6           0       -4.062348   -2.400033    2.889014
     10          6           0       -3.327237   -1.799380    1.922257
     11          6           0       -2.790211   -2.162524    0.643060
     12          6           0       -1.959880   -1.241109    4.486037
     13          6           0        1.374713   -2.743183    4.297360
     14          6           0        0.708079   -2.065609    3.304340
     15          6           0       -1.531549    1.256386    3.370828
     16          6           0       -1.982839   -1.695578    3.344457
     17          6           0       -2.624561    1.335196    2.786767
     18          8           0       -1.436917   -1.861986    5.214437
     19          8           0        1.446860   -2.926725    5.387744
     20          8           0       -0.247739   -0.972979    2.982666
     21          8           0       -0.815242    1.940612    3.781632
     22          8           0       -2.699247   -1.945361    2.868515
     23          8           0       -3.317840    1.608152    2.178649
     24          6           0       -0.777809   -1.960178    3.804970
     25          6           0       -1.781809   -0.156020    3.607230
     26         26           0       -0.143482   -3.700178    0.972858
     27         26           0        2.515147    1.677004   -1.134714
     28         26           0       -6.362022    0.935982   -3.943041
     29         23           0        1.143768   -2.035385    1.466181
     30         23           0        0.572371   -0.052467   -0.360009
     31         23           0       -4.630499   -0.195735   -2.428603
     32          8           0       -1.232817    3.079965   -1.009045
     33          8           0        2.022325   -1.651014    3.038717
     34          8           0        8.068164    0.711150   -4.637631
     35          8           0        8.183989    2.879565   -4.474570
     36          8           0        1.973968   -3.834141    1.886479
     37          8           0       -0.511837    1.538431   -1.930500
     38          8           0       -7.522604   -0.583162    3.115207
     39          8           0       -0.916775   -0.295444    1.959997
     40          8           0        1.412980   -1.498606   -0.380402
     41          8           0       -3.124972   -0.458910   -4.528242
     42          8           0       -7.167285   -0.306839   -4.491663
     43          8           0        7.850269   -0.508847    5.293039
     44          8           0        1.847109    0.203966   -2.062557
     45          8           0        2.186897    3.756947   -1.094054
     46          8           0        7.897058   -2.689285    5.303718
     47          8           0       -8.262161    1.052339   -3.546122
     48          8           0       -1.677550   -1.506706    1.457145
     49          6           0       -1.412549    2.349035   -2.095593
     50          6           0        1.967675   -2.948439    2.918446
     51          6           0        7.630633    1.790205   -4.144996
     52          6           0       -2.766033    2.212742   -2.992797
     53          6           0        3.157913   -2.422112    2.808107
     54          6           0        6.398371    1.832339   -3.178219
     55          6           0       -4.677458    2.661373   -2.348665
     56          6           0        3.995833   -0.592098    3.444524
     57          6           0        5.410668    0.879070   -2.955879
     58          6           0        5.768412    2.896064   -2.358794
     59          6           0        4.554043   -3.006835    2.950125
     60          6           0       -2.841381    0.724160   -3.889213
     61          6           0       -4.990406   -0.542393    3.086431
     62          6           0       -4.379817    1.837742   -3.311075
     63          6           0        5.371678   -0.757515    3.523502
     64          6           0        4.111303    0.915197   -2.544603
     65          6           0        4.570370    2.793656   -2.562287
     66          6           0        5.697891   -2.834324    3.270987
     67          6           0       -3.639439    0.808342   -3.822404
     68          6           0       -3.978301   -0.665646    2.293018
     69          6           0       -4.824001    1.314804   -4.402525
     70          6           0        6.276963   -1.737622    3.861252
     71          6           0        3.427980    2.041003   -2.305402
     72          6           0       -7.147470    1.381532   -5.516728
     73          6           0        7.429803   -1.625149    4.853456
     74          6           0        1.658007    2.948838   -2.080390
     75          6           0       -3.437250    2.562285   -1.725016
     76          6           0        0.135676    1.422636   -0.741996
     77          6           0        1.394720   -0.153621    1.088651
     78          6           0        2.887190    1.877098   -3.605184
     79          6           0        4.351885   -2.254000    1.785503
     80          6           0       -0.495931   -1.088636    1.218137
     81          6           0       -1.019171    0.824506   -0.589213
     82          6           0       -5.081656    1.489527    1.584136
     83          6           0        5.348011   -0.866857   -0.434603
     84          6           0       -0.879311    2.126466   -4.164821
     85          6           0       -4.381801    1.389361    0.585882
     86          6           0        4.325050   -0.082456    0.055534
     87          6           0        0.004539    2.362992   -3.335306
     88          6           0       -2.902301   -0.087952   -0.356552
     89          6           0        3.722351    1.011414   -0.569761
     90          6           0        2.054823   -1.240982   -2.821242
     91          6           0       -4.093996    1.388989   -1.539815
     92          6           0       -0.485615    0.388586    1.167566
     93          6           0        0.019975   -1.148041   -0.009999
     94          6           0        2.255549    2.645832   -2.801452
     95          6           0        3.471317   -1.126968    2.218389
     96          6           0       -0.851057   -0.172610   -0.465747
     97          6           0        0.443737    1.140532    0.925342
     98          6           0       -4.341937   -0.633415   -0.541975
     99          6           0        3.859835    1.072308    0.635800
    100          6           0        3.263110   -1.015178   -2.502630
    101          8           0       -3.462567    3.017173   -0.571723
    102          8           0        2.006786    0.007204   -0.838216
    103          8           0        2.702271    0.541003    0.063255
    104          8           0        2.009850    1.321304   -4.041435
    105          8           0        4.855160   -2.839091    0.916230
    106          8           0       -2.086630   -0.359157    1.441602
    107          8           0       -1.408900   -1.133244    0.343352
    108          8           0       -6.151443    1.818190    1.896554
    109          8           0        6.516936   -1.024410   -0.863017
    110          8           0       -1.446778    1.953396   -5.150472
    111          8           0       -3.861933    0.711242    0.284155
    112          8           0        2.931331    0.361952    1.071170
    113          8           0        0.331645    2.695935   -2.114772
    114          8           0       -3.715466   -0.426583    0.609582
    115          8           0        4.874667    0.423288   -1.351518
    116          8           0        1.405095   -1.956252   -3.401597
    117          8           0       -3.749323    3.130581   -2.755807
    118          8           0       -0.021161    0.575379    2.628507
    119          8           0        1.491519    0.846697   -0.067777
    120          8           0        3.638103    3.025733   -3.433824
    121          8           0        4.127752   -1.983655    3.451655
    122          8           0       -0.550863    0.199505   -1.745527
    123          8           0       -1.207271   -0.140436    0.749341
    124          8           0       -5.087778   -1.579075   -1.368291
    125          8           0        3.834963    1.160849    2.061647
    126          8           0        4.205160   -1.355457   -2.085694
    127          6           0       -4.150098    1.934807   -0.351098
    128          6           0        2.643516   -0.613113    0.529106
    129          6           0        0.835606    1.042967   -1.855426
    130          6           0        1.167879    2.136347   -3.574793
    131          6           0        4.862772   -0.705374    1.981928
    132          6           0       -2.155859    0.491634    0.240402
    133          6           0        0.337544   -0.493232    2.150506
    134          6           0       -3.583242    0.965353   -0.908849
    135          6           0        2.311140    1.203465    0.925105
    136          6           0        1.637656   -1.326470   -1.398615
    137          6           0        2.430998    0.326204   -2.971105
    138          6           0        4.290283   -0.983424    0.949174
    139          6           0       -2.314702   -0.991308   -0.024306
    140          6           0       -1.682667    1.122106    1.806913
    141         -2           0       17.695600    0.000000    0.000000
    142         -2           0        0.000000    6.874500    0.000000
    143         -2           0        0.000000    0.000000   11.930300
 ---------------------------------------------------------------------
 Lengths of translation vectors:     17.695600    6.874500   11.930300
  Angles of translation vectors:     90.000000   90.000000   90.000000
 ---------------------------------------------------------------------
 Standard basis: 6-311++G(d,p) (5D, 7F)
  3368 basis functions,  5504 primitive gaussians,  3556 cartesian basis functions
   546 alpha electrons      544 beta electrons
       nuclear repulsion energy     62012.9319929543 Hartrees.
 NAtoms=  140 NActive=  140 NUniq=  140 SFac= 1.00D+00 NAtFMM=   60 NAOKFM=T Big=T
 Integral buffers will be    131072 words long.
 Raffenetti 2 integral format.
 Two-electron integral symmetry is turned off.
 FOutLm=  100.00.
 Periodicity:                           1               1               1
 Max integer dimensions:                3               8               5
   PBC vector 1 X=    33.4398 Y=    0.0000 Z=    0.0000
   PBC vector 2 X=     0.0000 Y=   12.9909 Z=    0.0000
   PBC vector 3 X=     0.0000 Y=    0.0000 Z=   22.5450
  Recp vector 1 X=     0.0299 Y=    0.0000 Z=    0.0000
  Recp vector 2 X=     0.0000 Y=    0.0770 Z=    0.0000
  Recp vector 3 X=     0.0000 Y=    0.0000 Z=    0.0444
 Generated k point mesh (from -Pi to Pi):
 K space mesh: X=       2 Y=       6 Z=       4
 A half-cell shift: 0
 Using k point mesh (from -Pi to Pi):
 K space mesh: X=       2 Y=       6 Z=       4
 A half-cell shift: 0
 CountK=T Total number of k points:       0
 CountK=T Total number of k points:      28
 Out-of-memory error in routine PrmDim-Cnvrt (IEnd=     123465906 MxCore=     104854460)
 Use %mem=120MW to provide the minimum amount of memory required to complete this step.
 Error termination via Lnk1e in /home/phung/Downloads/Quantum/chemistry/g16/l302.exe at Thu Mar  9 21:20:27 2023.
 Job cpu time:       0 days  0 hours  0 minutes 16.1 seconds.
 Elapsed time:       0 days  0 hours  0 minutes 16.2 seconds.
 File lengths (MBytes):  RWF=    214 Int=      0 D2E=      0 Chk=      1 Scr=      1
